[ 12 ]
73
[ 19 ]
74
[ 21 ]
61
[ 24 ]
72
[ 46 ]
59
70
76
[ 49 ]
63
[ 51 ]
69
71
75
[ 53 ]
60
[ 76 ]
77
[ 81 ]
86
[ 83 ]
65
90
175
176
177
[ 85 ]
68
[ 90 ]
62
[ 106 ]
182
[ 108 ]
79
106
178
[ 110 ]
56
78
89
104
184
[ 113 ]
80
83
91
96
98
100
174
180
181
185
[ 115 ]
58
64
97
179
967
[ 117 ]
87
[ 120 ]
66
67
92
[ 133 ]
247
[ 138 ]
55
254
258
[ 140 ]
81
88
108
183
[ 142 ]
57
82
84
101
164
256
257
260
355
358
568
[ 145 ]
103
166
186
187
353
[ 147 ]
54
85
95
105
107
165
168
169
171
172
173
356
357
565
578
929
995
[ 149 ]
7
52
53
94
99
567
963
965
991
[ 152 ]
49
167
361
966
992
[ 154 ]
970
[ 165 ]
248
[ 167 ]
37
245
249
[ 170 ]
197
198
250
572
574
575
[ 172 ]
38
564
998
[ 174 ]
10
109
244
251
259
263
290
291
301
305
306
326
349
368
570
571
576
994
997
[ 177 ]
39
112
191
243
253
255
261
268
269
272
299
302
303
304
340
351
354
363
364
367
569
573
577
579
982
1000
1003
1009
[ 179 ]
93
110
114
188
189
271
273
288
297
298
300
315
317
332
333
335
337
338
347
350
352
359
366
566
928
959
972
996
999
1001
1004
1031
1904
[ 181 ]
41
102
120
121
192
194
270
318
334
339
563
594
843
869
927
971
973
974
985
993
1005
1030
1905
[ 184 ]
48
51
170
193
295
360
362
365
839
846
964
969
989
1006
[ 186 ]
328
968
987
988
[ 189 ]
50
[ 197 ]
246
[ 199 ]
34
[ 202 ]
252
265
372
865
977
[ 204 ]
19
199
279
282
307
309
310
369
872
[ 206 ]
9
11
35
40
44
45
190
236
262
264
266
267
274
275
277
286
308
316
329
341
346
413
560
580
588
589
838
864
870
871
1034
1044
1256
1910
[ 209 ]
6
18
24
33
113
115
196
201
276
284
287
311
312
313
319
323
324
325
345
348
373
374
375
587
592
593
875
878
880
919
930
960
961
983
1008
1014
1712
1890
1908
[ 211 ]
8
111
117
125
163
195
242
278
285
292
314
327
330
336
343
344
377
427
537
556
562
591
840
850
867
915
916
924
975
984
1007
1010
1020
1021
1035
1036
1045
1716
1903
1906
[ 213 ]
31
119
283
294
296
331
382
412
429
536
538
539
595
837
844
847
862
868
873
925
953
955
958
962
979
981
990
1011
1016
1018
1033
1257
1713
1902
[ 216 ]
25
122
289
428
557
842
845
852
861
866
926
956
986
1002
1019
1032
[ 218 ]
293
426
841
1901
[ 229 ]
23
[ 234 ]
20
36
200
914
921
[ 236 ]
237
280
415
480
558
586
854
913
931
1037
1244
[ 238 ]
5
46
123
124
205
281
320
321
322
342
370
371
378
385
387
389
393
419
505
559
590
863
923
933
978
1038
1047
1250
1888
1931
1937
[ 241 ]
12
32
43
204
240
241
376
383
384
386
390
391
392
411
414
416
420
424
510
535
547
561
584
585
597
874
877
920
932
934
1012
1013
1705
1884
1886
1887
1899
1907
1909
[ 243 ]
15
42
116
118
208
223
232
234
235
388
417
430
506
511
546
551
553
581
836
849
853
879
917
918
947
976
1015
1017
1022
1029
1217
1218
1219
1231
1706
1883
1889
1891
1898
1932
[ 245 ]
17
26
47
126
147
224
379
381
418
422
425
523
549
596
825
851
860
911
950
980
1028
1046
1111
[ 248 ]
230
380
423
550
848
855
856
882
949
954
1235
1714
1715
1900
[ 250 ]
16
548
552
957
[ 253 ]
146
[ 255 ]
1092
[ 263 ]
479
[ 266 ]
487
501
1882
1936
[ 268 ]
206
394
467
498
935
1095
1297
1319
1914
1918
[ 270 ]
4
21
136
239
459
481
496
499
502
544
598
876
922
937
1232
1241
1243
1252
1313
1326
1707
1880
1885
1892
1893
1894
1896
1915
1916
1917
1934
[ 273 ]
14
127
128
130
140
202
207
405
451
453
486
500
507
583
600
824
835
859
912
936
1039
1041
1048
1082
1094
1139
1215
1234
1239
1249
1251
1258
1259
1310
1311
1314
1317
1717
1881
1897
1911
1913
1933
1935
1940
[ 275 ]
13
22
134
160
209
221
395
396
421
433
476
478
485
488
508
545
807
813
816
820
948
1023
1025
1040
1049
1050
1100
1137
1216
1246
1253
1254
1255
1318
1708
1718
1912
1941
[ 277 ]
161
220
399
402
403
404
407
410
432
449
475
484
504
541
542
806
808
857
881
951
952
1112
1213
1229
1238
1247
1265
[ 280 ]
162
219
406
431
509
513
522
532
540
858
1042
1090
1110
1230
1930
1942
[ 282 ]
27
156
1027
1944
[ 285 ]
400
401
[ 288 ]
1135
[ 298 ]
1080
[ 300 ]
139
471
490
493
1221
1245
1354
1704
1895
[ 302 ]
131
132
150
153
409
460
482
489
492
495
497
503
582
599
910
1117
1260
1315
1316
1342
1356
1711
1995
[ 305 ]
138
216
218
222
238
458
462
464
466
473
601
603
815
817
823
941
1024
1026
1081
1096
1107
1138
1236
1240
1242
1309
1320
1324
1335
1336
1352
1710
[ 307 ]
2
129
133
141
142
143
145
158
159
203
210
212
217
397
408
448
457
463
465
469
472
474
494
521
530
531
543
602
811
814
826
940
944
946
1043
1065
1089
1108
1118
1133
1214
1261
1266
1355
1771
1774
1817
1971
1973
[ 309 ]
3
137
154
157
214
215
225
233
434
452
454
468
477
483
512
526
810
812
883
884
939
945
1093
1113
1114
1115
1134
1220
1224
1233
1237
1308
1312
1775
1929
1979
1982
1993
2005
[ 312 ]
144
148
450
456
470
529
533
555
804
1091
1105
1228
1816
[ 314 ]
28
398
520
524
1212
1943
[ 317 ]
29
30
1965
1970
[ 327 ]
1208
[ 330 ]
1136
1345
1703
[ 332 ]
461
833
1332
1337
1793
1796
1804
[ 334 ]
155
909
1062
1209
1222
1322
1325
1333
1334
1338
1340
1343
1344
1361
1802
1808
1920
1957
1958
[ 337 ]
149
151
231
491
821
822
1051
1053
1064
1085
1119
1122
1296
1321
1346
1357
1362
1363
1520
1755
1767
1784
1789
1800
1824
1828
1851
1919
1923
1948
1954
1956
1981
[ 339 ]
439
525
604
890
1083
1088
1116
1127
1132
1210
1211
1225
1248
1281
1341
1358
1709
1731
1769
1770
1783
1786
1801
1811
1813
1815
1826
1827
1867
1868
1869
1874
1879
1924
1928
1938
1959
1992
1997
2006
[ 341 ]
1
211
229
455
518
527
528
554
608
710
834
938
943
1099
1123
1267
1719
1720
1776
1790
1812
1818
1829
1830
1866
1871
1873
1878
1925
1961
1969
1975
1980
1989
1996
2003
[ 344 ]
213
226
435
534
942
1101
1106
1109
1773
1825
1870
1939
[ 346 ]
436
515
519
709
891
1837
[ 359 ]
1798
[ 362 ]
1395
1766
1797
1799
[ 364 ]
440
908
1061
1140
1305
1330
1515
1803
1962
[ 366 ]
441
711
1052
1128
1207
1223
1280
1298
1303
1304
1327
1328
1339
1396
1768
1787
1791
1805
1946
1984
2001
[ 369 ]
438
442
443
446
708
712
805
832
1063
1268
1323
1721
1765
1794
1807
1809
1814
1860
1927
1963
1994
[ 371 ]
135
152
444
447
699
703
705
1054
1055
1056
1086
1087
1097
1129
1130
1262
1264
1299
1351
1359
1360
1519
1528
1732
1782
1821
1843
1876
1964
1985
[ 373 ]
514
607
704
786
809
1057
1066
1079
1084
1104
1226
1347
1725
1820
1822
1831
1844
1850
1852
1877
1945
1977
1983
1987
1988
2002
[ 376 ]
700
716
780
831
901
902
1068
1102
1832
1833
1834
1836
1839
1862
1872
1991
2008
[ 378 ]
516
1098
1131
1227
1772
1785
1838
[ 381 ]
517
1835
[ 394 ]
907
1393
[ 396 ]
1516
1702
1806
[ 398 ]
437
445
717
724
731
803
1060
1120
1329
1397
1529
1698
1722
1795
1974
[ 401 ]
697
706
723
726
728
783
899
1121
1141
1282
1301
1307
1530
1764
1788
1823
1845
1858
1967
2004
[ 403 ]
228
605
610
617
618
707
713
727
729
730
758
788
829
904
906
1067
1103
1295
1306
1353
1521
1522
1726
1763
1853
1861
1960
[ 405 ]
606
609
616
698
759
779
785
789
792
885
900
903
1058
1124
1125
1263
1276
1279
1331
1348
1350
1507
1518
1523
1531
1742
1744
1781
1819
1848
1859
1998
[ 408 ]
702
714
781
886
889
892
1077
1292
1517
1575
1847
[ 410 ]
782
1059
1126
1349
1863
1864
1865
[ 413 ]
1849
[ 426 ]
753
[ 428 ]
734
737
755
762
768
784
793
794
1142
1364
1394
1586
1592
1759
1972
[ 430 ]
632
718
721
722
732
750
751
760
761
769
770
1143
1384
1392
[ 433 ]
227
612
619
701
725
733
752
757
767
771
775
799
802
905
1365
1382
1383
1503
1510
1526
1571
1589
1723
1724
1777
1976
[ 435 ]
614
647
648
743
778
818
827
893
1069
1270
1761
1854
1855
1990
[ 437 ]
615
631
644
719
720
763
764
787
800
801
830
894
1289
1293
1294
1506
1508
1598
1727
1730
1739
1760
1846
1856
[ 440 ]
611
625
766
798
896
1075
1078
1206
1272
1597
1840
[ 442 ]
715
895
1076
1601
[ 445 ]
790
1875
[ 455 ]
773
[ 458 ]
746
1585
1587
1591
[ 460 ]
735
736
738
742
747
756
1300
1302
1398
1399
1514
1645
1648
1762
1947
1955
[ 462 ]
627
628
633
634
675
683
745
754
772
795
797
898
1371
1387
1576
1588
1681
1685
[ 465 ]
621
626
630
676
678
680
686
688
692
693
749
776
1204
1385
1386
1401
1525
1728
1778
1779
[ 467 ]
642
645
649
651
687
694
741
744
765
774
888
1271
1278
1287
1288
1290
1367
1381
1402
1546
1555
1573
1741
2000
[ 469 ]
613
643
646
654
681
682
695
696
1071
1269
1275
1572
1574
1596
1599
1600
1607
1780
1842
1921
1926
1999
[ 472 ]
620
622
653
1074
1277
1602
1609
1734
[ 474 ]
1593
1603
1610
1729
[ 485 ]
1700
[ 487 ]
1513
[ 490 ]
739
1511
[ 492 ]
1512
1647
1670
[ 494 ]
638
650
689
740
748
777
1376
1400
1524
1527
1577
1646
1649
1677
1682
1758
1953
[ 497 ]
623
635
637
662
672
691
819
1205
1283
1372
1496
1545
1556
1562
1612
1676
1743
[ 499 ]
624
639
641
652
655
667
679
685
690
796
1366
1380
1565
1605
1679
1687
1949
2009
[ 501 ]
629
677
791
887
1073
1369
1509
1606
1608
1686
1692
[ 504 ]
684
897
1502
1604
1680
[ 506 ]
1072
1368
1756
[ 509 ]
1690
[ 519 ]
1675
[ 522 ]
1578
[ 524 ]
1389
1390
1532
1684
1701
[ 526 ]
658
668
670
1146
1544
1547
1561
1563
1564
1570
1669
1678
2007
[ 529 ]
636
665
1070
1273
1291
1377
1378
1450
1534
1535
1554
1590
1656
1672
1694
1810
1951
[ 531 ]
640
659
661
666
669
673
674
1155
1274
1285
1286
1370
1375
1497
1501
1504
1550
1551
1566
1595
1611
1922
[ 533 ]
660
1403
1405
1733
1735
[ 536 ]
656
1553
1594
1693
[ 538 ]
663
1857
[ 554 ]
1147
1740
[ 556 ]
1149
1150
1152
1154
1584
1644
1660
1697
[ 558 ]
671
828
1379
1500
1533
1569
1650
1666
1674
1699
[ 561 ]
1153
1156
1203
1388
1391
1536
1549
1579
1614
1655
2010
[ 563 ]
1202
1284
1406
1548
1552
1658
1671
1683
[ 565 ]
657
1567
1657
1745
[ 568 ]
1373
1404
1505
[ 570 ]
1144
1691
[ 583 ]
1429
[ 586 ]
1558
1661
[ 588 ]
1148
1557
1560
1663
[ 590 ]
1498
1543
[ 593 ]
1145
1151
1427
1541
1568
1615
1629
1652
1659
1665
1668
1673
1695
[ 595 ]
1181
1198
1413
1428
1452
1494
1616
1630
1654
1664
1736
[ 597 ]
664
1157
1165
1415
1449
1538
1613
1633
1688
1750
[ 600 ]
1158
1166
1167
1201
1414
1696
[ 618 ]
1662
[ 620 ]
1559
[ 622 ]
1408
1430
1499
1539
1542
1580
1625
1978
[ 625 ]
1411
1582
1583
1627
1653
1968
1986
[ 627 ]
1159
1162
1176
1374
1409
1446
1493
1495
1537
1628
1643
1667
[ 629 ]
1792
[ 632 ]
1171
1445
1453
1454
[ 650 ]
1433
[ 652 ]
1636
[ 654 ]
1197
1426
1431
1447
1456
1491
1540
1617
1624
1632
1738
[ 657 ]
1160
1164
1174
1410
1492
1634
[ 659 ]
1168
1179
1189
1196
1432
1581
1622
1747
[ 661 ]
1161
1169
1172
1177
1192
1451
1651
[ 664 ]
1163
1170
1737
[ 666 ]
1200
1689
1841
[ 669 ]
1199
[ 682 ]
1618
[ 684 ]
1489
1620
[ 686 ]
1187
1490
1623
1631
1950
[ 689 ]
1178
1407
1448
1457
1621
[ 691 ]
1173
1619
1626
[ 693 ]
1175
1195
1444
[ 696 ]
1412
1437
2021
[ 698 ]
1635
[ 714 ]
1488
[ 716 ]
1417
1436
1638
[ 718 ]
1188
1952
[ 721 ]
1182
1191
1434
1439
1455
1467
[ 723 ]
1180
1190
1438
1642
[ 725 ]
1416
1746
[ 728 ]
1193
1748
[ 746 ]
1487
[ 748 ]
1425
[ 750 ]
1466
1484
[ 753 ]
1458
1461
1465
1469
1470
1481
1637
1966
[ 755 ]
1440
1459
1460
1464
[ 757 ]
1186
1194
1435
1441
1443
1468
1641
[ 760 ]
1639
[ 778 ]
1485
[ 780 ]
1183
1423
1424
1476
1749
[ 782 ]
1185
1418
1471
1472
1486
[ 785 ]
1473
1482
[ 787 ]
1442
[ 789 ]
1419
[ 792 ]
1184
1753
[ 807 ]
1475
2102
[ 810 ]
1462
2500
[ 812 ]
1474
[ 814 ]
1422
1463
1477
[ 817 ]
1479
1480
2104
[ 819 ]
1483
[ 826 ]
1640
1757
[ 839 ]
2103
[ 844 ]
1420
1421
2098
2224
[ 846 ]
2476
[ 849 ]
1478
2217
2222
2223
[ 851 ]
1751
2501
[ 853 ]
2216
[ 878 ]
2192
2196
2220
2265
2289
2329
2379
2493
2498
[ 881 ]
2201
2218
2221
2228
2229
2244
2247
2248
[ 883 ]
1752
2194
2195
2213
2214
2219
2225
2227
2230
2240
2241
2243
2253
2263
2380
2482
2494
[ 885 ]
1754
2215
2226
2242
2245
2246
2305
2313
2484
2490
[ 888 ]
2381
2478
[ 903 ]
2101
[ 906 ]
2322
[ 908 ]
2100
2127
2150
2152
2290
2292
2328
2420
2488
[ 910 ]
2105
2132
2149
2191
2211
2285
2288
2291
2319
2334
2353
2360
2375
2377
2385
2398
2407
2409
2475
[ 913 ]
2096
2099
2133
2136
2142
2145
2155
2158
2180
2186
2187
2188
2197
2198
2204
2207
2233
2235
2236
2256
2264
2266
2271
2295
2296
2297
2299
2303
2304
2317
2318
2323
2325
2330
2351
2362
2371
2378
2387
2396
2419
2462
2464
2486
2487
2491
2492
2495
2499
[ 915 ]
2144
2151
2165
2166
2183
2189
2193
2203
2205
2206
2208
2212
2232
2234
2237
2239
2249
2255
2267
2277
2281
2294
2307
2316
2321
2346
2352
2355
2356
2358
2365
2367
2372
2373
2374
2376
2382
2383
2384
2386
2388
2390
2392
2408
2416
2474
2477
2483
2485
2496
2497
[ 917 ]
2181
2185
2200
2209
2210
2231
2238
2250
2251
2252
2254
2270
2280
2282
2286
2293
2306
2309
2314
2315
2331
2357
2359
2364
2368
2369
2426
2427
2479
2481
2489
[ 920 ]
2182
2202
2259
2260
2261
2268
2274
2278
2287
2300
2301
2308
2338
2350
[ 922 ]
2257
2272
2284
2302
[ 925 ]
2199
2258
2480
[ 940 ]
2019
2032
2118
2124
2125
2126
2332
[ 942 ]
2023
2052
2055
2106
2115
2121
2137
2138
2153
2320
2333
2391
2394
2395
2401
2403
2405
2406
2410
2418
2455
2460
2461
2471
[ 945 ]
2018
2110
2112
2113
2122
2123
2128
2130
2135
2146
2148
2154
2159
2162
2190
2324
2327
2335
2336
2342
2354
2361
2366
2389
2393
2397
2399
2402
2404
2411
2413
2414
2415
2422
2439
2440
2456
2458
2459
2465
[ 947 ]
2013
2089
2108
2109
2114
2116
2117
2131
2134
2143
2147
2156
2157
2160
2164
2169
2173
2175
2178
2179
2184
2273
2337
2339
2340
2341
2343
2349
2370
2400
2412
2423
2430
2433
2434
2435
2438
2445
2446
2447
2449
2457
2463
2472
2473
[ 949 ]
2011
2086
2107
2119
2120
2139
2140
2161
2172
2177
2262
2269
2283
2298
2310
2312
2326
2344
2345
2348
2363
2417
2428
2429
2432
2436
2437
2442
2444
2448
2451
2453
2466
[ 952 ]
2129
2141
2163
2167
2170
2174
2176
2275
2311
2347
2424
2425
2431
2441
2443
2452
[ 954 ]
2168
2171
2276
2279
2421
[ 972 ]
2097
[ 974 ]
2024
2028
2030
2037
2051
2053
2064
2071
[ 977 ]
2012
2025
2027
2029
2031
2036
2040
2049
2054
2056
2057
2059
2061
2062
2067
2069
2072
2074
2079
2085
2087
2090
2111
2454
[ 979 ]
2017
2022
2034
2041
2042
2045
2048
2050
2063
2065
2070
2073
2076
2077
2078
2081
2083
2084
2088
2091
2093
2094
2095
2450
2468
[ 981 ]
2016
2033
2035
2038
2046
2047
2058
2060
2066
2068
2075
2082
2092
2467
2469
[ 984 ]
2026
2080
2470
[ 1006 ]
2020
[ 1011 ]
2014
2039
2044
[ 1013 ]
2015
[ 1016 ]
2043
