[ 5 ]
2386
[ 15 ]
2378
[ 37 ]
2380
2385
2463
2466
[ 42 ]
2388
2464
2475
2491
[ 47 ]
2375
2376
2379
2384
2387
2435
2465
2469
2474
[ 53 ]
2374
2377
2381
2391
2413
[ 58 ]
2476
[ 64 ]
2425
2481
[ 69 ]
2424
2453
2473
[ 74 ]
2382
2383
2393
2394
2410
2412
2415
2422
2427
2428
2434
2442
2454
2462
2468
2470
2472
2479
2482
[ 79 ]
2366
2389
2390
2392
2398
2401
2405
2409
2414
2432
2438
2439
2457
2461
2467
2477
2478
2480
2485
[ 85 ]
2396
2399
2400
2426
2430
2431
2433
2437
2459
2471
2484
2487
2488
2490
2492
2494
[ 90 ]
2372
2397
2423
2436
2440
2460
[ 95 ]
2411
2493
[ 96 ]
2360
[ 101 ]
2365
2408
2497
[ 106 ]
2359
2368
2416
2429
2444
2450
2495
[ 111 ]
2367
2371
2395
2402
2418
2419
2443
2445
2449
2483
2499
2500
2501
[ 117 ]
2361
2373
2403
2404
2407
2441
2458
2486
2489
[ 122 ]
2406
2456
[ 127 ]
2420
2448
[ 133 ]
2358
[ 138 ]
2286
2369
2446
[ 143 ]
2308
2362
2363
2417
2447
2455
2496
[ 149 ]
2421
2452
2498
[ 154 ]
2451
[ 165 ]
2202
2312
[ 170 ]
2176
2177
2285
2313
2356
2357
[ 175 ]
2178
2231
2270
2283
2314
2354
2355
2364
[ 181 ]
2281
2284
2318
2339
[ 186 ]
2338
2370
[ 197 ]
2345
[ 202 ]
2182
2183
2192
2196
2208
2217
2220
2232
2243
2245
2252
2253
2282
2293
2296
2306
2319
2327
2332
2351
[ 207 ]
2168
2170
2171
2174
2175
2181
2188
2193
2194
2204
2210
2222
2223
2224
2226
2227
2229
2230
2233
2236
2241
2244
2246
2254
2257
2269
2271
2274
2275
2280
2310
2311
2316
2317
2334
2343
[ 213 ]
2169
2173
2179
2237
2242
2251
2267
2273
2276
2278
2287
2288
2305
2307
2315
2337
2340
2341
2352
[ 218 ]
2172
2228
2277
2279
2342
[ 229 ]
2148
2348
[ 234 ]
2109
2180
2186
2190
2199
2201
2209
2216
2219
2234
2235
2238
2260
2299
2303
2324
2326
2346
[ 239 ]
2150
2184
2189
2191
2195
2198
2203
2206
2211
2212
2221
2225
2240
2249
2256
2258
2262
2289
2294
2300
2302
2304
2322
2331
2335
2336
2344
2347
2353
[ 245 ]
2197
2205
2207
2218
2239
2247
2259
2261
2266
2291
2292
2297
2320
2321
2325
2333
2349
2350
[ 250 ]
2272
2295
2323
[ 261 ]
2200
[ 266 ]
2115
2117
2129
2149
2153
2161
2213
2215
2250
[ 271 ]
2095
2097
2102
2110
2113
2114
2116
2152
2154
2158
2165
2185
2214
2264
2265
2268
2298
2301
2309
2330
[ 277 ]
2096
2103
2107
2142
2144
2157
2159
2164
2167
2187
2255
2263
2328
2329
[ 282 ]
2155
[ 287 ]
2290
[ 293 ]
2098
2101
[ 298 ]
2121
2128
[ 303 ]
2106
2118
2122
2123
2130
2132
2134
2135
2140
2141
2143
2151
2156
2160
2162
[ 309 ]
2092
2104
2108
2112
2136
2166
[ 314 ]
2111
2131
2248
[ 325 ]
1824
[ 330 ]
2099
2120
2125
2127
2147
[ 335 ]
2093
2094
2105
2119
2138
[ 341 ]
2091
2100
2124
2133
2137
2145
2146
2163
[ 357 ]
1813
1828
2126
[ 362 ]
1826
1833
1834
[ 367 ]
1819
2090
[ 373 ]
2067
2139
[ 384 ]
1814
[ 389 ]
1844
[ 394 ]
1816
[ 399 ]
1815
1821
1825
1827
1829
2064
2072
2080
2087
2088
2089
[ 405 ]
2065
2071
2081
[ 410 ]
2068
2086
[ 421 ]
1817
1818
2084
[ 426 ]
1808
1811
1836
1870
[ 431 ]
1806
1809
1820
1822
1823
1831
1832
1835
1845
1850
2066
2082
2083
[ 437 ]
1807
1871
2061
2070
[ 442 ]
1944
2069
2085
[ 458 ]
1810
1843
1849
2051
[ 463 ]
1830
1842
1860
1872
2039
2048
2073
2079
[ 469 ]
1812
1841
2036
2060
2063
2078
[ 474 ]
1840
1940
1946
1947
2037
[ 485 ]
1863
1865
1869
2035
[ 490 ]
1846
1851
1856
1857
1868
1938
2040
2041
[ 495 ]
1805
1837
1838
1866
1867
1874
1880
1883
1933
1943
2042
2044
2045
2074
[ 501 ]
1839
1848
1864
1881
1939
1945
2046
2049
2052
2057
2058
2059
2062
2077
[ 506 ]
1847
1941
1948
2056
[ 511 ]
2038
2055
[ 522 ]
1854
1855
1862
2032
[ 527 ]
541
542
1804
1873
1884
1922
1931
1950
2033
2043
2075
[ 533 ]
539
1267
1878
1882
1891
1892
1921
1929
1932
1935
1942
2047
2050
2053
2054
[ 538 ]
1930
1934
[ 543 ]
1952
[ 554 ]
540
550
916
1282
1852
1858
1859
1861
1877
1911
1914
1915
1923
1928
1936
1937
2076
[ 559 ]
538
1876
1894
1912
1913
1916
1919
1994
2034
[ 565 ]
1315
1800
1801
1802
1875
1879
1886
1888
1890
1924
1949
1951
1953
1993
2031
[ 570 ]
1281
1887
1898
1910
2030
[ 581 ]
1799
1895
1902
1918
[ 586 ]
324
556
1301
1325
1327
1345
1897
1917
1996
[ 591 ]
298
326
327
535
543
545
546
547
548
549
779
1256
1265
1266
1268
1276
1312
1314
1316
1317
1335
1754
1755
1756
1803
1853
1899
1900
1903
1904
2004
2005
2026
[ 597 ]
328
921
1271
1278
1311
1346
1798
1885
1893
1927
1957
1977
1995
2007
[ 602 ]
338
1909
1920
2029
[ 607 ]
1889
1954
[ 613 ]
1783
1925
1999
[ 618 ]
551
575
802
919
1203
1257
1275
1299
1308
1319
1342
1753
1766
1797
2003
2012
2022
2023
[ 623 ]
279
323
329
339
375
517
553
574
577
586
764
775
801
918
1220
1237
1255
1269
1273
1277
1280
1283
1284
1286
1287
1288
1294
1300
1303
1309
1313
1318
1322
1323
1328
1329
1331
1332
1333
1343
1757
1759
1762
1763
1765
1796
1907
1956
1965
1966
1972
1978
1988
1989
2002
2008
2014
2027
[ 629 ]
337
591
689
773
778
889
920
1245
1274
1279
1321
1330
1340
1347
1896
1908
1926
1955
1974
2006
2009
2018
2019
2021
2024
2025
[ 634 ]
307
333
629
774
777
1238
1906
1958
[ 639 ]
1905
[ 650 ]
534
554
558
581
608
621
645
681
694
695
697
698
762
922
1202
1219
1221
1244
1258
1263
1272
1298
1302
1344
1348
1764
1784
1795
1963
1973
1980
1986
1992
1998
2010
2011
[ 655 ]
273
276
296
299
302
330
332
367
376
377
379
380
536
555
557
559
578
579
580
585
588
589
590
614
685
686
688
696
700
701
703
716
763
765
772
780
797
809
835
844
872
873
878
915
1201
1225
1229
1240
1243
1247
1251
1254
1264
1270
1285
1290
1291
1295
1297
1304
1305
1306
1307
1320
1326
1334
1351
1391
1392
1427
1483
1752
1758
1760
1761
1901
1960
1961
1997
2000
[ 661 ]
281
297
300
301
315
316
322
325
378
537
544
572
582
610
620
630
690
702
776
803
846
876
877
917
1223
1246
1292
1296
1324
1341
1350
1964
1990
1991
2001
2017
2020
[ 666 ]
304
356
669
771
1959
1976
[ 671 ]
343
346
[ 677 ]
1216
1721
1782
1985
[ 682 ]
358
368
374
473
532
533
571
573
576
584
595
613
619
622
646
732
733
734
781
788
816
851
864
1122
1205
1206
1207
1211
1212
1214
1217
1241
1249
1250
1259
1260
1262
1352
1388
1389
1397
1412
1425
1456
1498
1786
1975
1984
[ 687 ]
255
261
264
295
313
314
361
373
510
511
512
519
527
552
560
569
570
583
587
594
596
607
609
612
615
624
635
641
644
670
680
683
687
693
699
704
706
707
708
715
722
723
730
740
761
766
769
770
784
790
798
799
815
832
837
848
854
856
858
865
871
874
925
1157
1200
1209
1215
1218
1222
1224
1226
1228
1231
1233
1234
1236
1253
1261
1293
1310
1337
1339
1349
1360
1383
1385
1386
1387
1390
1393
1394
1398
1399
1400
1408
1409
1431
1442
1444
1466
1478
1482
1499
1720
1767
1775
1794
1970
1982
2013
2028
[ 693 ]
263
274
282
283
284
303
305
321
331
336
340
341
347
371
520
526
634
691
692
705
711
789
792
793
833
836
852
855
875
882
888
923
1227
1235
1239
1242
1289
1479
1742
1768
1967
1969
1979
2015
2016
[ 698 ]
262
306
345
767
838
857
1459
1469
1472
1968
1971
[ 703 ]
342
344
[ 709 ]
80
679
[ 714 ]
83
92
272
280
370
474
515
525
530
605
618
623
625
628
636
639
643
647
648
672
673
717
725
726
731
737
739
744
760
786
805
806
808
847
860
884
1204
1213
1248
1252
1354
1361
1396
1416
1432
1436
1453
1481
1519
1718
1722
1737
1785
1987
[ 719 ]
231
259
265
275
288
294
310
334
335
348
355
357
359
366
369
372
381
392
394
472
506
509
514
523
531
561
565
567
568
592
593
597
606
616
617
626
627
631
632
638
640
649
651
667
668
674
676
677
682
684
719
720
721
736
738
751
753
782
783
807
810
826
828
829
839
841
842
843
845
850
859
861
863
867
868
869
870
911
913
1158
1210
1232
1338
1353
1359
1362
1364
1366
1382
1384
1395
1401
1402
1403
1404
1405
1406
1407
1410
1413
1423
1424
1426
1428
1429
1433
1435
1439
1443
1446
1449
1454
1457
1467
1473
1477
1480
1484
1486
1487
1489
1497
1569
1704
1715
1716
1717
1741
1776
1793
[ 725 ]
233
246
287
290
293
309
311
312
319
320
354
360
365
382
395
396
402
407
462
505
513
518
521
562
611
633
642
663
678
709
713
791
800
804
811
812
820
834
853
866
887
890
912
914
924
1208
1230
1336
1367
1448
1463
1465
1468
1470
1471
1488
1491
1492
1500
1523
1524
1750
1774
1981
[ 730 ]
245
260
277
289
350
399
507
813
830
879
927
1525
1714
1962
[ 735 ]
292
466
[ 736 ]
84
1594
[ 741 ]
13
93
353
470
482
484
1501
1777
1787
[ 746 ]
10
15
17
82
85
98
99
234
267
278
352
471
478
479
485
487
516
528
563
598
604
650
652
662
714
729
735
741
752
756
759
840
1160
1355
1369
1374
1375
1379
1411
1430
1451
1507
1533
1688
1711
1727
1729
1730
1733
1751
1792
[ 751 ]
11
12
16
51
81
94
95
100
104
105
106
111
229
230
232
236
244
249
285
383
391
393
401
404
461
463
490
503
504
508
522
529
564
637
653
659
661
664
666
675
712
718
727
743
747
749
758
787
795
817
818
819
821
824
825
849
862
881
885
886
894
895
907
926
928
975
1159
1195
1363
1365
1368
1372
1415
1418
1420
1421
1422
1434
1440
1445
1452
1455
1458
1460
1474
1485
1490
1495
1496
1502
1504
1508
1510
1513
1516
1518
1520
1522
1526
1527
1528
1534
1536
1542
1547
1580
1689
1690
1691
1693
1700
1701
1703
1705
1706
1708
1709
1710
1712
1713
1719
1724
1725
1726
1728
1731
1738
1739
1740
1743
1748
1769
1773
1778
1780
1983
[ 757 ]
198
248
254
256
257
269
270
308
317
349
351
363
364
384
385
387
389
390
397
400
405
455
460
489
497
499
500
524
566
602
665
710
724
746
750
754
755
757
768
785
794
796
814
822
823
831
880
892
897
898
899
901
908
909
973
1149
1155
1156
1371
1381
1417
1441
1447
1464
1475
1476
1493
1494
1506
1511
1517
1521
1532
1538
1545
1583
1600
1687
1697
1698
1699
1702
1735
1736
1770
1779
1781
[ 762 ]
250
253
362
398
469
745
896
906
910
932
1370
1531
1539
1540
[ 767 ]
247
468
[ 773 ]
6
8
44
68
69
76
109
318
476
477
480
483
1189
1191
[ 778 ]
9
18
20
21
36
52
70
71
75
77
78
87
89
91
97
102
107
115
116
121
228
243
486
654
658
883
893
930
1088
1090
1123
1190
1194
1196
1356
1358
1380
1529
1530
1535
1555
1559
1581
1602
1643
1686
1695
1696
1744
[ 783 ]
22
23
43
66
73
79
96
101
113
114
188
189
199
207
209
213
268
456
457
465
475
488
493
496
501
502
599
600
601
655
656
657
660
748
827
905
962
979
1092
1096
1117
1120
1121
1125
1134
1152
1154
1163
1182
1197
1198
1373
1378
1414
1419
1438
1450
1462
1503
1514
1541
1544
1546
1548
1552
1553
1557
1558
1560
1563
1564
1565
1566
1577
1582
1584
1585
1587
1601
1692
1694
1723
1732
1745
1746
1772
1788
1791
[ 789 ]
4
14
90
110
112
191
195
196
203
210
251
252
258
266
271
386
403
406
426
427
430
454
458
459
491
492
498
603
671
728
742
891
902
904
929
931
933
974
976
1099
1129
1137
1150
1183
1199
1377
1461
1509
1512
1515
1543
1549
1550
1551
1562
1567
1568
1570
1574
1579
1586
1588
1599
1678
1707
1734
1747
1749
[ 794 ]
235
291
388
464
467
1098
1100
1101
1573
[ 799 ]
237
[ 800 ]
1593
[ 805 ]
25
41
45
49
130
242
481
1590
1790
[ 810 ]
28
35
40
47
55
56
57
62
64
74
117
132
145
197
201
202
215
216
224
286
1087
1109
1118
1124
1135
1140
1188
1357
1578
1622
1634
1645
1677
1789
[ 815 ]
1
3
7
24
30
32
34
39
42
46
50
61
67
72
86
103
108
119
126
127
153
165
166
168
172
176
181
183
190
206
208
211
214
223
238
241
409
415
425
429
495
900
934
954
977
981
982
983
1083
1089
1091
1108
1111
1112
1119
1131
1133
1136
1138
1139
1141
1142
1143
1144
1146
1147
1148
1161
1167
1168
1184
1192
1193
1376
1437
1505
1556
1604
1610
1628
1633
1635
1685
1771
[ 821 ]
5
19
29
33
38
54
60
63
65
88
118
120
122
152
169
170
177
178
184
192
194
200
205
212
240
422
423
424
428
494
935
936
938
958
969
970
980
1084
1094
1102
1104
1110
1126
1127
1128
1132
1145
1164
1166
1169
1537
1554
1561
1572
1595
1597
1598
1603
1670
1676
[ 826 ]
2
26
53
193
956
959
1085
1097
1103
1105
1107
1116
1153
1589
1591
1605
[ 831 ]
239
903
[ 832 ]
221
[ 837 ]
134
140
141
220
222
225
1071
1592
1618
1637
[ 842 ]
27
48
58
123
124
125
129
131
136
139
148
149
154
158
159
163
173
175
179
217
226
410
449
950
957
966
967
996
1053
1072
1076
1086
1093
1151
1162
1596
1606
1614
1615
1617
1620
1623
1625
1636
1642
1644
1646
1655
1674
1680
1683
1684
[ 847 ]
31
37
59
128
137
138
144
147
160
161
162
171
174
180
182
185
204
446
944
945
948
953
961
968
971
978
988
993
1050
1066
1073
1077
1095
1114
1115
1130
1170
1171
1181
1185
1187
1576
1621
1626
1629
1630
1632
1638
1639
1640
1641
1647
1648
1672
1675
1679
1681
[ 853 ]
133
146
150
167
227
408
416
420
431
432
440
941
943
947
949
955
960
963
972
1054
1069
1075
1078
1079
1106
1172
1571
1575
1607
1608
1611
1612
1652
1665
1673
1682
[ 858 ]
135
157
187
412
417
450
937
1074
1082
1613
1619
1624
1631
1649
1654
[ 864 ]
1661
[ 869 ]
186
992
1057
1070
[ 874 ]
218
219
964
991
995
997
1038
1042
1056
1059
1060
1061
1064
1068
1178
1186
1669
[ 879 ]
151
155
156
164
413
421
437
444
445
451
452
453
939
946
951
985
986
994
1018
1019
1028
1031
1032
1040
1052
1055
1063
1067
1113
1173
1179
1616
1653
1657
1664
1666
1667
[ 885 ]
142
143
414
418
419
435
436
439
443
940
942
952
984
987
989
990
1021
1025
1165
1180
1609
1627
1650
1651
1656
1658
1660
1663
1671
[ 890 ]
411
438
1020
1041
1051
1058
1080
1081
1668
[ 901 ]
999
1062
[ 906 ]
965
998
1176
[ 911 ]
433
434
441
447
1000
1001
1022
1023
1030
1037
1039
1049
1175
1662
[ 917 ]
442
448
1002
1017
1024
1035
1036
1043
1044
1065
1177
1659
[ 922 ]
1027
1033
1045
1046
1174
[ 938 ]
1004
[ 943 ]
1003
1034
1047
1048
[ 949 ]
1006
1013
1015
1026
[ 954 ]
1016
1029
[ 975 ]
1005
1010
1012
1014
[ 981 ]
1008
1011
[ 986 ]
1009
[ 997 ]
1007
